 Gaussian 16, Revision B.01,
 Gaussian 16:  EM64L-G16RevB.01 20-Dec-2017

 --------------------------------------------------------------
 # opt Temperature=500.0 # freq # hf/6-31g(d) geom=connectivity
 --------------------------------------------------------------

 -------------------
 Title Card Required
 -------------------
 Symbolic Z-matrix:
 Charge =  0 Multiplicity = 1

 SCF Done:  E(RHF) =  -152.879015034     A.U. after   12 cycles
 SCF Done:  E(RHF) =  -152.884879898     A.U. after   11 cycles
 SCF Done:  E(RHF) =  -152.885361264     A.U. after   11 cycles
 SCF Done:  E(RHF) =  -152.885388861     A.U. after    9 cycles
 SCF Done:  E(RHF) =  -152.885389640     A.U. after    8 cycles
 Optimization completed.
    -- Stationary point found.
 Normal termination of Gaussian 16 at Mon Feb 12 16:00:11 2024.

 -----------------------------------------------------------------
 #N Geom=AllCheck Guess=TCheck SCRF=Check GenChk RHF/6-31G(d) Freq
 -----------------------------------------------------------------

 Structure from the checkpoint file:  "vinyl-alcohol.chk"
 -------------------
 Title Card Required
 -------------------
 Charge =  0 Multiplicity = 1

                         Standard orientation:
 ---------------------------------------------------------------------
 Center     Atomic      Atomic             Coordinates (Angstroms)
 Number     Number       Type             X           Y           Z
 ---------------------------------------------------------------------
      1          6           0       -1.214687   -0.177292    0.000000
      2          6           0       -0.036529    0.406524   -0.000000
      3          8           0        1.124393   -0.289833   -0.000000
      4          1           0        1.865454    0.296486    0.000003
      5          1           0       -1.308472   -1.247479    0.000000
      6          1           0       -2.108981    0.415449    0.000000
      7          1           0        0.064148    1.478818   -0.000000
 ---------------------------------------------------------------------

 SCF Done:  E(RHF) =  -152.885389640     A.U. after    1 cycles

 The electronic state is 1-A.
 Alpha  occ. eigenvalues --  -20.58697 -11.28921 -11.20209  -1.40183  -1.02342
 Alpha  occ. eigenvalues --   -0.79534  -0.74141  -0.61889  -0.57166  -0.56761
 Alpha  occ. eigenvalues --   -0.51296  -0.33952
 Alpha virt. eigenvalues --    0.20920   0.21314   0.29186   0.30956   0.34296
 Alpha virt. eigenvalues --    0.47436   0.51505   0.72386   0.76926   0.82234
 Alpha virt. eigenvalues --    0.83899   0.88511   0.95020   1.05163   1.13769

 Mulliken charges:
               1
     1  C   -0.467016
     2  C    0.178342
     3  O   -0.704738
     4  H    0.454713
     5  H    0.188389
     6  H    0.176964
     7  H    0.173347
 Sum of Mulliken charges =  -0.00000

 Dipole moment (field-independent basis, Debye):
    X=              0.8079    Y=              1.9326    Z=              0.0000  Tot=              2.0946
 Quadrupole moment (field-independent basis, Debye-Ang):
   XX=            -14.6077   YY=            -17.1222   ZZ=            -20.5097
   XY=              2.6652   XZ=              0.0000   YZ=              0.0000

  Exact polarizability:  35.386   5.097  23.267   0.000   0.000  10.442
 Approx polarizability:  28.308   3.901  19.667   0.000   0.000  10.463

                      1                      2                      3
                      A                      A                      A
 Frequencies --    186.5854               517.6814               785.2650
 Red. masses --      1.1014                 2.2579                 1.4399
 Frc consts  --      0.0226                 0.3565                 0.5231
 IR Inten    --    140.3728                 4.0170                 5.8527
 Raman Activ --      1.6665                 1.2094                 8.0414

                      4                      5                      6
                      A                      A                      A
 Frequencies --    987.7688              1048.6164              1104.0128
 Red. masses --      1.3667                 1.9463                 1.1508
 Frc consts  --      0.7856                 1.2610                 0.8264
 IR Inten    --     83.8462                59.8397                12.6128
 Raman Activ --      3.7958                 4.3794                 2.3849

                      7                      8                      9
                      A                      A                      A
 Frequencies --   1236.0341              1419.2481              1476.0496
 Red. masses --      1.7315                 1.5818                 1.2037
 Frc consts  --      1.5586                 1.8773                 1.5451
 IR Inten    --     12.7738               265.8661                15.5227
 Raman Activ --      7.1467                 7.9530                20.7099

                     10                     11                     12
                      A                      A                      A
 Frequencies --   1581.4760              1907.2190              3344.4043
 Red. masses --      1.1861                 4.0255                 1.0690
 Frc consts  --      1.7479                 8.6272                 7.0451
 IR Inten    --      0.2891               112.6456                18.1942
 Raman Activ --      2.6860                28.5698                17.5541

                     13                     14                     15
                      A                      A                      A
 Frequencies --   3363.7460              3442.6669              4146.1639
 Red. masses --      1.0877                 1.1185                 1.0676
 Frc consts  --      7.2514                 7.8103                10.8128
 IR Inten    --      9.3263                13.5271               111.0905
 Raman Activ --    142.6994                50.5640                89.1110

 - Thermochemistry -
 -------------------
 Temperature   500.000 Kelvin.  Pressure   1.00000 Atm.
 Atom     1 has atomic number  6 and mass  12.00000

 Molecular mass:    44.02621 amu.
 Principal axes and moments of inertia in atomic units:
                           1         2         3
     Eigenvalues --    27.39982 170.19667 197.59649
           X            0.99942   0.03404   0.00000
           Y           -0.03404   0.99942   0.00000
           Z           -0.00000  -0.00000   1.00000
 This molecule is an asymmetric top.
 Rotational symmetry number  1.
 Rotational temperatures (Kelvin)      3.16111     0.50890     0.43834
 Rotational constants (GHZ):          65.86689    10.60386     9.13347
 Zero-point vibrational energy     158785.9 (Joules/Mol)
                                   37.95075 (Kcal/Mol)
 Warning -- explicit consideration of   4 degrees of freedom as
           vibrations may cause significant error
 Vibrational temperatures:    268.45   744.83  1129.82  1421.18  1508.73
          (Kelvin)           1588.43  1778.38  2041.98  2123.71  2275.39
                             2744.06  4811.85  4839.68  4953.23  5965.41

 Zero-point correction=                           0.060478 (Hartree/Particle)
 Thermal correction to Energy=                    0.068761
 Thermal correction to Enthalpy=                  0.070345
 Thermal correction to Gibbs Free Energy=         0.014417
 Sum of electronic and zero-point Energies=           -152.824911
 Sum of electronic and thermal Energies=              -152.816628
 Sum of electronic and thermal Enthalpies=            -152.815045
 Sum of electronic and thermal Free Energies=         -152.870973

                     E (Thermal)             CV                S
                      KCal/Mol        Cal/Mol-Kelvin    Cal/Mol-Kelvin
 Total                   43.148             16.418             70.190
 Electronic               0.000              0.000              0.000
 Translational            1.490              2.981             39.841
 Rotational               1.490              2.981             22.990
 Vibrational             40.168             10.457              7.359
 Vibration     1          1.017              1.940              3.247
 Vibration     2          1.171              1.657              1.369
 Vibration     3          1.384              1.320              0.742
 Vibration     4          1.587              1.055              0.469

 Optimization completed.
    -- Stationary point found.
 Normal termination of Gaussian 16 at Mon Feb 12 16:00:13 2024.
