 Gaussian 16, Revision B.01,
 Gaussian 16:  EM64L-G16RevB.01 20-Dec-2017

 --------------------------------------------------------------
 # opt Temperature=300.0 # freq # hf/6-31g(d) geom=connectivity
 --------------------------------------------------------------

 -------------------
 Title Card Required
 -------------------
 Symbolic Z-matrix:
 Charge =  0 Multiplicity = 1

 SCF Done:  E(RHF) =  -152.879015034     A.U. after   12 cycles
 SCF Done:  E(RHF) =  -152.884879898     A.U. after   11 cycles
 SCF Done:  E(RHF) =  -152.885361264     A.U. after   11 cycles
 SCF Done:  E(RHF) =  -152.885388861     A.U. after    9 cycles
 SCF Done:  E(RHF) =  -152.885389640     A.U. after    8 cycles
 Optimization completed.
    -- Stationary point found.
 Normal termination of Gaussian 16 at Mon Feb 12 15:59:56 2024.

 -----------------------------------------------------------------
 #N Geom=AllCheck Guess=TCheck SCRF=Check GenChk RHF/6-31G(d) Freq
 -----------------------------------------------------------------

 Structure from the checkpoint file:  "vinyl-alcohol.chk"
 -------------------
 Title Card Required
 -------------------
 Charge =  0 Multiplicity = 1

                         Standard orientation:
 ---------------------------------------------------------------------
 Center     Atomic      Atomic             Coordinates (Angstroms)
 Number     Number       Type             X           Y           Z
 ---------------------------------------------------------------------
      1          6           0       -1.241446   -0.181591   -0.000003
      2          6           0       -0.060917    0.422068    0.000002
      3          8           0        1.175005   -0.297235   -0.000002
      4          1           0        1.907159    0.323693    0.000003
      5          1           0       -1.349251   -1.274554    0.000016
      6          1           0       -2.190655    0.370845   -0.000004
      7          1           0        0.046888    1.515031    0.000005
 ---------------------------------------------------------------------

 SCF Done:  E(RHF) =  -152.879015034     A.U. after    1 cycles

 The electronic state is 1-A.
 Alpha  occ. eigenvalues --  -20.58495 -11.30109 -11.22062  -1.36671  -1.02103
 Alpha  occ. eigenvalues --   -0.78530  -0.71652  -0.61246  -0.56589  -0.55143
 Alpha  occ. eigenvalues --   -0.50767  -0.34881
 Alpha virt. eigenvalues --    0.19701   0.21183   0.28411   0.29753   0.32202
 Alpha virt. eigenvalues --    0.46073   0.51014   0.70433   0.76897   0.80958
 Alpha virt. eigenvalues --    0.82814   0.88171   0.93857   1.06658   1.11394

 Mulliken charges:
               1
     1  C   -0.450707
     2  C    0.177431
     3  O   -0.733997
     4  H    0.450378
     5  H    0.192766
     6  H    0.182359
     7  H    0.181770
 Sum of Mulliken charges =   0.00000

 Dipole moment (field-independent basis, Debye):
    X=              0.3543    Y=              1.9978    Z=              0.0000  Tot=              2.0289
 Quadrupole moment (field-independent basis, Debye-Ang):
   XX=            -14.5075   YY=            -17.0967   ZZ=            -20.7047
   XY=              2.9743   XZ=              0.0000   YZ=             -0.0000

  Exact polarizability:  37.528   5.326  24.524   0.000  -0.000  10.437
 Approx polarizability:  29.706   4.051  20.703   0.000   0.000  10.394

                      1                      2                      3
                      A                      A                      A
 Frequencies --    477.9909               560.9134               851.4195
 Red. masses --      1.0995                 2.6963                 1.4861
 Frc consts  --      0.1480                 0.4998                 0.6347
 IR Inten    --    136.5634                 7.4781                 2.1530
 Raman Activ --      1.9615                 2.2884                 9.5869

                      4                      5                      6
                      A                      A                      A
 Frequencies --    926.5362              1107.8347              1162.4916
 Red. masses --      3.7326                 1.3767                 1.1119
 Frc consts  --      1.8879                 0.9955                 0.8853
 IR Inten    --    114.3083                64.3457                28.3682
 Raman Activ --      8.1392                 2.8643                 1.4128

                      7                      8                      9
                      A                      A                      A
 Frequencies --   1180.6720              1405.0325              1478.6644
 Red. masses --      1.4413                 1.3234                 1.2095
 Frc consts  --      1.1838                 1.5393                 1.5581
 IR Inten    --      5.1241               169.5403                26.4702
 Raman Activ --      1.4837                18.4737                18.5674

                     10                     11                     12
                      A                      A                      A
 Frequencies --   1600.5483              1850.9923              3138.9330
 Red. masses --      1.1724                 3.0498                 1.0631
 Frc consts  --      1.7696                 6.1564                 6.1714
 IR Inten    --      0.7905                68.5703                 5.5386
 Raman Activ --      7.5852                22.4437                45.8293

                     13                     14                     15
                      A                      A                      A
 Frequencies --   3165.7159              3198.4661              3941.8689
 Red. masses --      1.1028                 1.1154                 1.0677
 Frc consts  --      6.5116                 6.7227                 9.7746
 IR Inten    --     11.5482                19.9640                90.9484
 Raman Activ --    143.7133                50.8567                99.6445

 - Thermochemistry -
 -------------------
 Temperature   300.000 Kelvin.  Pressure   1.00000 Atm.
 Atom     1 has atomic number  6 and mass  12.00000

 Molecular mass:    44.02621 amu.
 Principal axes and moments of inertia in atomic units:
                           1         2         3
     Eigenvalues --    28.80332 181.98612 210.78943
           X            0.99935   0.03612  -0.00000
           Y           -0.03612   0.99935  -0.00000
           Z            0.00000   0.00000   1.00000
 This molecule is an asymmetric top.
 Rotational symmetry number  1.
 Rotational temperatures (Kelvin)      3.00708     0.47594     0.41090
 Rotational constants (GHZ):          62.65741     9.91692     8.56182
 Zero-point vibrational energy     155802.1 (Joules/Mol)
                                   37.23760 (Kcal/Mol)
 Warning -- explicit consideration of   2 degrees of freedom as
           vibrations may cause significant error
 Vibrational temperatures:    687.72   807.03  1225.00  1333.08  1593.93
          (Kelvin)           1672.57  1698.72  2021.53  2127.47  2302.83
                             2663.17  4516.22  4554.76  4601.88  5671.47

 Zero-point correction=                           0.059342 (Hartree/Particle)
 Thermal correction to Energy=                    0.062821
 Thermal correction to Enthalpy=                  0.063771
 Thermal correction to Gibbs Free Energy=         0.034749
 Sum of electronic and zero-point Energies=           -152.819673
 Sum of electronic and thermal Energies=              -152.816194
 Sum of electronic and thermal Enthalpies=            -152.815244
 Sum of electronic and thermal Free Energies=         -152.844266

                     E (Thermal)             CV                S
                      KCal/Mol        Cal/Mol-Kelvin    Cal/Mol-Kelvin
 Total                   39.421             10.445             60.705
 Electronic               0.000              0.000              0.000
 Translational            0.894              2.981             37.303
 Rotational               0.894              2.981             21.648
 Vibrational             37.632              4.484              1.754
 Vibration     1          0.837              1.305              0.724
 Vibration     2          0.919              1.123              0.529

                           ! Non-Optimized Parameters !
 Normal termination of Gaussian 16 at Mon Feb 12 15:59:58 2024.
